 LiH optimized at MP2/6-311++G(2d,2p); sp at hf/sto-6g
GAUSSIAN              2 MOL ORBITALS     36 PRIMITIVES        2 NUCLEI
  Li   1    (CENTRE  1)   0.00000000  0.00000000  0.75765404  CHARGE =  3.0
  H    2    (CENTRE  2)   0.00000000  0.00000000 -2.27296212  CHARGE =  1.0
CENTRE ASSIGNMENTS    1  1  1  1  1  1  1  1  1  1  1  1  1  1  1  1  1  1  1  1
CENTRE ASSIGNMENTS    1  1  1  1  1  1  1  1  1  1  2  2  2  2  2  2
TYPE ASSIGNMENTS      1  1  1  1  1  1  1  1  1  1  1  1  2  2  2  2  2  2  3  3
TYPE ASSIGNMENTS      3  3  3  3  4  4  4  4  4  4  1  1  1  1  1  1
EXPONENTS  0.1671758D+03 0.3065151D+02 0.8575187D+01 0.2945808D+01 0.1143944D+01
EXPONENTS  0.4711391D+00 0.6597564D+01 0.1305830D+01 0.4058510D+00 0.1561455D+00
EXPONENTS  0.6781410D-01 0.3108417D-01 0.6597564D+01 0.1305830D+01 0.4058510D+00
EXPONENTS  0.1561455D+00 0.6781410D-01 0.3108417D-01 0.6597564D+01 0.1305830D+01
EXPONENTS  0.4058510D+00 0.1561455D+00 0.6781410D-01 0.3108417D-01 0.6597564D+01
EXPONENTS  0.1305830D+01 0.4058510D+00 0.1561455D+00 0.6781410D-01 0.3108417D-01
EXPONENTS  0.3552322D+02 0.6513144D+01 0.1822143D+01 0.6259553D+00 0.2430767D+00
EXPONENTS  0.1001124D+00
MO    1     MO 0.0        OCC NO =    2.0000000  ORB. ENERGY =   -2.387473
  0.30177324D+00  0.45547213D+00  0.59822695D+00  0.59020083D+00  0.32632043D+00
  0.52499423D-01 -0.92187039D-03 -0.96997638D-03 -0.29028767D-03  0.10503448D-02
  0.13363415D-02  0.30110402D-03  0.00000000D+00  0.00000000D+00  0.00000000D+00
  0.00000000D+00  0.00000000D+00  0.00000000D+00  0.00000000D+00  0.00000000D+00
  0.00000000D+00  0.00000000D+00  0.00000000D+00  0.00000000D+00  0.33002326D-03
  0.43664070D-03  0.46764036D-03  0.34063422D-03  0.12234287D-03  0.11020280D-04
  0.33851089D-03  0.51092097D-03  0.67105465D-03  0.66205144D-03  0.36604643D-03
  0.58890663D-04
MO    2     MO 0.0        OCC NO =    2.0000000  ORB. ENERGY =   -0.285513
 -0.47816368D-01 -0.72170160D-01 -0.94789849D-01 -0.93518100D-01 -0.51705902D-01
 -0.83186027D-02 -0.17351589D-01 -0.18257047D-01 -0.54638399D-02  0.19769754D-01
  0.25152830D-01  0.56674270D-02  0.00000000D+00  0.00000000D+00  0.00000000D+00
  0.00000000D+00  0.00000000D+00  0.00000000D+00  0.00000000D+00  0.00000000D+00
  0.00000000D+00  0.00000000D+00  0.00000000D+00  0.00000000D+00 -0.19611130D-01
 -0.25946708D-01 -0.27788816D-01 -0.20241669D-01 -0.72700387D-02 -0.65486336D-03
  0.52782238D-01  0.79665242D-01  0.10463405D+00  0.10323023D+00  0.57075711D-01
  0.91825140D-02
END DATA
 TOTAL ENERGY =       -7.951675412965 THE VIRIAL(-V/T)=   1.98385645
