 LiH optimized at MP2/6-311++G(2d,2p); sp at hf/sto-3g
GAUSSIAN              2 MOL ORBITALS     18 PRIMITIVES        2 NUCLEI
  Li   1    (CENTRE  1)   0.00000000  0.00000000  0.75765404  CHARGE =  3.0
  H    2    (CENTRE  2)   0.00000000  0.00000000 -2.27296212  CHARGE =  1.0
CENTRE ASSIGNMENTS    1  1  1  1  1  1  1  1  1  1  1  1  1  1  1  2  2  2
TYPE ASSIGNMENTS      1  1  1  1  1  1  2  2  2  3  3  3  4  4  4  1  1  1
EXPONENTS  0.1611957D+02 0.2936201D+01 0.7946505D+00 0.6362897D+00 0.1478601D+00
EXPONENTS  0.4808868D-01 0.6362897D+00 0.1478601D+00 0.4808868D-01 0.6362897D+00
EXPONENTS  0.1478601D+00 0.4808868D-01 0.6362897D+00 0.1478601D+00 0.4808868D-01
EXPONENTS  0.3425251D+01 0.6239137D+00 0.1688554D+00
MO    1     MO 0.0        OCC NO =    2.0000000  ORB. ENERGY =   -2.348849
  0.87711748D+00  0.84830984D+00  0.26438112D+00 -0.16611711D-02  0.22219505D-02
  0.16769392D-02  0.00000000D+00  0.00000000D+00  0.00000000D+00  0.00000000D+00
  0.00000000D+00  0.00000000D+00  0.79321254D-03  0.49879333D-03  0.79017244D-04
  0.11820658D-02  0.11432426D-02  0.35629879D-03
MO    2     MO 0.0        OCC NO =    2.0000000  ORB. ENERGY =   -0.284952
 -0.14763637D+00 -0.14278747D+00 -0.44500617D-01 -0.23124237D-01  0.30930534D-01
  0.23343736D-01  0.00000000D+00  0.00000000D+00  0.00000000D+00  0.00000000D+00
  0.00000000D+00  0.00000000D+00 -0.43685613D-01 -0.27470686D-01 -0.43518182D-02
  0.15211982D+00  0.14712367D+00  0.45852021D-01
END DATA
 TOTAL ENERGY =       -7.861740775721 THE VIRIAL(-V/T)=   1.98837332
